 Gaussian 09, Revision C.01,
 Gaussian 09:  EM64L-G09RevC.01 23-Sep-2011

 ----------------------------------------------
 # 6-311++g(d,p) scrf=(smd,solvent=water) m062x
 ----------------------------------------------

 ---------
 SO4-_vert
 ---------
 Symbolic Z-matrix:
 Charge = -2 Multiplicity = 1

                         Standard orientation:
 ---------------------------------------------------------------------
 Center     Atomic      Atomic             Coordinates (Angstroms)
 Number     Number       Type             X           Y           Z
 ---------------------------------------------------------------------
      1         16           0        0.084558    0.000000    0.000239
      2          8           0        0.879529    1.223557   -0.000256
      3          8           0        0.879532   -1.223555   -0.000251
      4          8           0       -0.964285   -0.000004   -1.103629
      5          8           0       -0.963892    0.000001    1.103658
 ---------------------------------------------------------------------

 SCF Done:  E(RM062X) =  -699.329209665     A.U. after   12 cycles

 The electronic state is 1-A.
 Alpha  occ. eigenvalues --  -90.08694 -19.57993 -19.57991 -19.54404 -19.54391
 Alpha  occ. eigenvalues --   -8.42248  -6.34533  -6.34483  -6.34475  -1.24194
 Alpha  occ. eigenvalues --   -1.09266  -1.07332  -1.02057  -0.63742  -0.53593
 Alpha  occ. eigenvalues --   -0.53188  -0.52948  -0.41691  -0.40241  -0.39529
 Alpha  occ. eigenvalues --   -0.37996  -0.37052  -0.31776  -0.30432  -0.28222
 Alpha virt. eigenvalues --    0.03097   0.05876   0.05939   0.06053   0.15963
 Alpha virt. eigenvalues --    0.15988   0.16777   0.20291   0.21040   0.22096
 Alpha virt. eigenvalues --    0.22394   0.22720   0.26803   0.27029   0.27276

 Mulliken atomic charges:
              1
     1  S    0.710035
     2  O   -0.566348
     3  O   -0.566348
     4  O   -0.789229
     5  O   -0.788111
 Sum of Mulliken atomic charges =  -2.00000

 Dipole moment (field-independent basis, Debye):
    X=              2.3019    Y=              0.0000    Z=              0.0079  Tot=              2.3019
 Quadrupole moment (field-independent basis, Debye-Ang):
   XX=            -51.5579   YY=            -48.9766   ZZ=            -49.6094
   XY=              0.0000   XZ=             -0.0049   YZ=              0.0000

 Normal termination of Gaussian 09 at Wed Nov 11 14:47:00 2015.
