 Gaussian 09, Revision C.01,
 Gaussian 09:  EM64L-G09RevC.01 23-Sep-2011

 ----------------------------------------------
 # 6-311++g(d,p) scrf=(smd,solvent=water) m062x
 ----------------------------------------------

 99/5=1,9=1/99;
 -----------
 aminophenol
 -----------
 Charge =  1 Multiplicity = 2

                         Standard orientation:
 ---------------------------------------------------------------------
 Center     Atomic      Atomic             Coordinates (Angstroms)
 Number     Number       Type             X           Y           Z
 ---------------------------------------------------------------------
      1          6           0       -1.251106    1.093159    0.004058
      2          6           0        1.203209   -0.277794   -0.009194
      3          6           0       -1.210330   -0.299524    0.000300
      4          6           0       -0.045899    1.788003    0.004202
      5          6           0        1.174221    1.123222   -0.002475
      6          6           0       -0.003037   -0.987822   -0.006448
      7          8           0       -2.411040   -0.966410    0.004935
      8          7           0        2.414867   -0.960307   -0.079471
      9          1           0       -2.253557   -1.918631   -0.001233
     10          1           0       -2.204988    1.605518    0.009567
     11          1           0       -0.058969    2.872143    0.010794
     12          1           0        2.106828    1.676421   -0.002142
     13          1           0        3.204531   -0.440153    0.280069
     14          1           0        2.385794   -1.903394    0.285880
     15          1           0        0.002257   -2.073937   -0.008773
 ---------------------------------------------------------------------

 SCF Done:  E(UM062X) =  -362.583226047     A.U. after   26 cycles

 The electronic state is 2-A.
 Alpha  occ. eigenvalues --  -19.67814 -14.82633 -10.65055 -10.64871 -10.59972
 Alpha  occ. eigenvalues --  -10.59423 -10.57938 -10.57486  -1.20792  -1.09047
 Alpha  occ. eigenvalues --   -0.99405  -0.88163  -0.87983  -0.75340  -0.72860
 Alpha  occ. eigenvalues --   -0.66441  -0.63957  -0.60028  -0.58960  -0.55984
 Alpha  occ. eigenvalues --   -0.53524  -0.52529  -0.49882  -0.49424  -0.46395
 Alpha  occ. eigenvalues --   -0.45043  -0.42419  -0.33009  -0.32505
 Alpha virt. eigenvalues --   -0.01277  -0.00318   0.00071   0.01405   0.01452
 Alpha virt. eigenvalues --    0.03355   0.03673   0.05131   0.06366   0.06645
 Alpha virt. eigenvalues --    0.07288   0.09012   0.09314   0.10155   0.11866

  Beta  occ. eigenvalues --  -19.67763 -14.82118 -10.65081 -10.64841 -10.59756
  Beta  occ. eigenvalues --  -10.59255 -10.58033 -10.57462  -1.20642  -1.07697
  Beta  occ. eigenvalues --   -0.98494  -0.87761  -0.86740  -0.74971  -0.72248
  Beta  occ. eigenvalues --   -0.66096  -0.63356  -0.59447  -0.58241  -0.55477
  Beta  occ. eigenvalues --   -0.52468  -0.51943  -0.49453  -0.46791  -0.45976
  Beta  occ. eigenvalues --   -0.44727  -0.38310  -0.31843
  Beta virt. eigenvalues --   -0.16312  -0.00002   0.00447   0.01350   0.01436
  Beta virt. eigenvalues --    0.01801   0.03363   0.03666   0.04978   0.05944
  Beta virt. eigenvalues --    0.06598   0.07296   0.09063   0.09289   0.10030

 Mulliken atomic charges:
              1
     1  C    0.225048
     2  C   -1.032254
     3  C   -0.836749
     4  C   -0.552344
     5  C    0.402375
     6  C    0.955072
     7  O   -0.279194
     8  N   -0.189985
     9  H    0.354853
    10  H    0.334334
    11  H    0.292034
    12  H    0.327473
    13  H    0.343129
    14  H    0.341426
    15  H    0.314784
 Sum of Mulliken atomic charges =   1.00000

 Dipole moment (field-independent basis, Debye):
    X=              5.2906    Y=             -1.7707    Z=              1.2304  Tot=              5.7131
 Quadrupole moment (field-independent basis, Debye-Ang):
   XX=            -25.4234   YY=            -23.9551   ZZ=            -48.5391
   XY=             -2.2821   XZ=              3.6056   YZ=             -1.4602

 Normal termination of Gaussian 09 at Fri Jan 22 14:54:20 2016.
