 Gaussian 09, Revision A.02,
 Gaussian 09:  EM64L-G09RevA.02 11-Jun-2009

 --------------------------------------------------------------
 # opt=calcfc freq m062x 6-311++g(d,p) scrf=(smd,solvent=water)
 --------------------------------------------------------------

 -----------
 aminophenol
 -----------
 Symbolic Z-matrix:
 Charge =  1 Multiplicity = 2

 SCF Done:  E(UM062X) =  -362.588029349     A.U. after   19 cycles
 SCF Done:  E(UM062X) =  -362.596650649     A.U. after   21 cycles
 SCF Done:  E(UM062X) =  -362.596772589     A.U. after   20 cycles
 SCF Done:  E(UM062X) =  -362.596778456     A.U. after   14 cycles
 SCF Done:  E(UM062X) =  -362.596778563     A.U. after   23 cycles
 Optimization completed.
    -- Stationary point found.
 Normal termination of Gaussian 09 at Fri Jan 22 06:13:03 2016.

 ----------------------------------------------------------------------
 #N Geom=AllCheck Guess=TCheck SCRF=Check GenChk UM062X/6-311++G(d,p) F
 req
 ----------------------------------------------------------------------

 aminophenol
 -----------
 Redundant internal coordinates taken from checkpoint file:
 aminophenol_pro_m06.chk
 Charge =  1 Multiplicity = 2

                         Standard orientation:
 ---------------------------------------------------------------------
 Center     Atomic      Atomic             Coordinates (Angstroms)
 Number     Number       Type             X           Y           Z
 ---------------------------------------------------------------------
      1          6           0       -1.187425    1.111494    0.000001
      2          6           0        1.186871   -0.325313   -0.000001
      3          6           0       -1.208327   -0.315360   -0.000001
      4          6           0        0.024705    1.803899    0.000000
      5          6           0        1.211047    1.113375   -0.000001
      6          6           0       -0.044215   -1.032987   -0.000004
      7          8           0       -2.433715   -0.874269    0.000001
      8          7           0        2.336203   -0.978650    0.000002
      9          1           0       -2.371694   -1.839904    0.000011
     10          1           0       -2.133682    1.638578    0.000003
     11          1           0        0.022081    2.885864    0.000001
     12          1           0        2.171001    1.616059   -0.000002
     13          1           0        3.218240   -0.476202    0.000006
     14          1           0        2.361676   -1.993088    0.000003
     15          1           0       -0.047253   -2.117250   -0.000008
 ---------------------------------------------------------------------

 SCF Done:  E(UM062X) =  -362.596778563     A.U. after    1 cycles

 The electronic state is 2-A.
 Alpha  occ. eigenvalues --  -19.67677 -14.82857 -10.64778 -10.64609 -10.59482
 Alpha  occ. eigenvalues --  -10.58951 -10.57522 -10.57096  -1.21466  -1.10615
 Alpha  occ. eigenvalues --   -0.98546  -0.88290  -0.86621  -0.75264  -0.73549
 Alpha  occ. eigenvalues --   -0.67203  -0.64718  -0.60001  -0.59212  -0.55593
 Alpha  occ. eigenvalues --   -0.53734  -0.52949  -0.49878  -0.49272  -0.46449
 Alpha  occ. eigenvalues --   -0.44439  -0.41968  -0.32866  -0.30592
 Alpha virt. eigenvalues --   -0.00563   0.00081   0.00363   0.01380   0.01430
 Alpha virt. eigenvalues --    0.03346   0.03636   0.05311   0.06274   0.06670
 Alpha virt. eigenvalues --    0.07276   0.08952   0.09775   0.09838   0.11845

  Beta  occ. eigenvalues --  -19.67655 -14.82384 -10.64786 -10.64656 -10.59229
  Beta  occ. eigenvalues --  -10.58761 -10.57626 -10.57046  -1.21402  -1.09265
  Beta  occ. eigenvalues --   -0.97677  -0.88048  -0.85205  -0.74898  -0.72871
  Beta  occ. eigenvalues --   -0.66837  -0.64196  -0.59355  -0.58689  -0.55167
  Beta  occ. eigenvalues --   -0.52818  -0.52349  -0.48885  -0.47408  -0.46156
  Beta  occ. eigenvalues --   -0.44169  -0.38291  -0.31841
  Beta virt. eigenvalues --   -0.14123   0.00032   0.01271   0.01371   0.01473
  Beta virt. eigenvalues --    0.02291   0.03391   0.03660   0.05105   0.05712
  Beta virt. eigenvalues --    0.06651   0.07301   0.08998   0.09651   0.09765

 Mulliken atomic charges:
              1
     1  C    0.226547
     2  C   -0.955979
     3  C   -0.803388
     4  C   -0.577001
     5  C    0.399577
     6  C    0.865729
     7  O   -0.277499
     8  N   -0.228187
     9  H    0.358850
    10  H    0.327207
    11  H    0.288557
    12  H    0.319569
    13  H    0.371975
    14  H    0.371777
    15  H    0.312266
 Sum of Mulliken atomic charges =   1.00000

 Dipole moment (field-independent basis, Debye):
    X=              5.9665    Y=             -2.6503    Z=              0.0000  Tot=              6.5286
 Quadrupole moment (field-independent basis, Debye-Ang):
   XX=            -22.4611   YY=            -23.3642   ZZ=            -48.9718
   XY=             -2.4243   XZ=              0.0000   YZ=              0.0000

  Exact polarizability: 185.303 -28.769 127.927   0.005   0.001  57.092
 Approx polarizability: 141.179 -16.521 103.683   0.000   0.000  53.407

                     1                      2                      3
                     A                      A                      A
 Frequencies --   166.6660               201.7596               339.2201
 Red. masses --     3.5010                 4.2233                 3.5354
 Frc consts  --     0.0573                 0.1013                 0.2397
 IR Inten    --     4.9423                 0.3093                 4.1222

                     4                      5                      6
                     A                      A                      A
 Frequencies --   403.1365               444.9880               486.2476
 Red. masses --     2.6373                 1.1098                 3.2144
 Frc consts  --     0.2525                 0.1295                 0.4478
 IR Inten    --    26.6619               207.0647                16.9406

                     7                      8                      9
                     A                      A                      A
 Frequencies --   494.2750               535.5681               564.5312
 Red. masses --     7.4576                 6.2526                 1.4713
 Frc consts  --     1.0735                 1.0567                 0.2763
 IR Inten    --    35.8345                 8.3610                38.3527

                    10                     11                     12
                     A                      A                      A
 Frequencies --   584.7647               588.1510               644.8310
 Red. masses --     1.4870                 1.3266                 2.6965
 Frc consts  --     0.2996                 0.2704                 0.6606
 IR Inten    --   276.7132                23.0709                 9.3882

                    13                     14                     15
                     A                      A                      A
 Frequencies --   755.4205               776.6261               842.6509
 Red. masses --     6.9772                 1.7733                 1.4131
 Frc consts  --     2.3459                 0.6302                 0.5912
 IR Inten    --    10.1672                80.2708                57.5146

                    16                     17                     18
                     A                      A                      A
 Frequencies --   905.0799               962.4301               988.0649
 Red. masses --     1.4599                 2.2761                 5.6710
 Frc consts  --     0.7046                 1.2421                 3.2620
 IR Inten    --     3.1214                 8.6800                13.4717

                    19                     20                     21
                     A                      A                      A
 Frequencies --   999.3393              1065.9906              1122.6831
 Red. masses --     1.2914                 1.4883                 1.3592
 Frc consts  --     0.7599                 0.9964                 1.0094
 IR Inten    --     4.9022                 5.5463                24.4805

                    22                     23                     24
                     A                      A                      A
 Frequencies --  1164.5235              1198.3040              1250.4694
 Red. masses --     1.2321                 2.6498                 1.3787
 Frc consts  --     0.9845                 2.2418                 1.2702
 IR Inten    --    78.0308               865.3657                 5.4922

                    25                     26                     27
                     A                      A                      A
 Frequencies --  1355.3382              1403.7091              1438.9316
 Red. masses --     1.5445                 3.2047                 2.0412
 Frc consts  --     1.6716                 3.7205                 2.4901
 IR Inten    --     8.9337               196.2928                12.6476

                    28                     29                     30
                     A                      A                      A
 Frequencies --  1483.7318              1539.1288              1561.4882
 Red. masses --     3.0747                 2.2226                 3.2337
 Frc consts  --     3.9881                 3.1022                 4.6455
 IR Inten    --    42.0864               122.5849               339.2209

                    31                     32                     33
                     A                      A                      A
 Frequencies --  1638.5524              1655.1413              3197.3852
 Red. masses --     2.9457                 2.5723                 1.0951
 Frc consts  --     4.6597                 4.1518                 6.5962
 IR Inten    --    67.9941               312.2126                10.9501

                    34                     35                     36
                     A                      A                      A
 Frequencies --  3204.6474              3216.5582              3227.7245
 Red. masses --     1.0919                 1.0911                 1.0986
 Frc consts  --     6.6068                 6.6514                 6.7436
 IR Inten    --     3.9624                 0.0601                 2.8868

                    37                     38                     39
                     A                      A                      A
 Frequencies --  3508.9110              3631.8323              3818.5472
 Red. masses --     1.0483                 1.1084                 1.0659
 Frc consts  --     7.6046                 8.6135                 9.1573
 IR Inten    --   764.0330               234.3538               263.0527

 - Thermochemistry -
 -------------------
 Temperature   298.150 Kelvin.  Pressure   1.00000 Atm.
 Atom     1 has atomic number  6 and mass  12.00000

 Molecular mass:   109.05276 amu.
 Principal axes and moments of inertia in atomic units:
                           1         2         3
     Eigenvalues --   483.97104 968.245411452.21645
           X            0.99992  -0.01237   0.00000
           Y            0.01237   0.99992   0.00000
           Z            0.00000   0.00000   1.00000
 This molecule is an asymmetric top.
 Rotational symmetry number  1.
 Warning -- assumption of classical behavior for rotation
           may cause significant error
 Rotational temperatures (Kelvin)      0.17896     0.08945     0.05964
 Rotational constants (GHZ):           3.72903     1.86393     1.24275
 Zero-point vibrational energy     319207.6 (Joules/Mol)
                                   76.29245 (Kcal/Mol)
 Warning -- explicit consideration of  11 degrees of freedom as
           vibrations may cause significant error
 Vibrational temperatures:    239.79   290.29   488.06   580.02   640.24
          (Kelvin)            699.60   711.15   770.56   812.23   841.34
                              846.22   927.77  1086.88  1117.39  1212.39
                             1302.21  1384.72  1421.60  1437.82  1533.72
                             1615.29  1675.49  1724.09  1799.14  1950.03
                             2019.62  2070.30  2134.76  2214.46  2246.63
                             2357.51  2381.38  4600.32  4610.77  4627.90
                             4643.97  5048.53  5225.39  5494.03

 Zero-point correction=                           0.121580 (Hartree/Particle)
 Thermal correction to Energy=                    0.128406
 Thermal correction to Enthalpy=                  0.129350
 Thermal correction to Gibbs Free Energy=         0.090317
 Sum of electronic and zero-point Energies=           -362.475199
 Sum of electronic and thermal Energies=              -362.468373
 Sum of electronic and thermal Enthalpies=            -362.467429
 Sum of electronic and thermal Free Energies=         -362.506462

                     E (Thermal)             CV                S
                      KCal/Mol        Cal/Mol-Kelvin    Cal/Mol-Kelvin
 Total                   80.576             27.474             82.152
 Electronic               0.000              0.000              1.377
 Translational            0.889              2.981             39.976
 Rotational               0.889              2.981             28.011
 Vibrational             78.798             21.513             12.787
 Vibration     1          0.624              1.883              2.473
 Vibration     2          0.639              1.837              2.117
 Vibration     3          0.719              1.597              1.216
 Vibration     4          0.769              1.463              0.951
 Vibration     5          0.804              1.372              0.811
 Vibration     6          0.842              1.281              0.693
 Vibration     7          0.850              1.263              0.673
 Vibration     8          0.891              1.171              0.575
 Vibration     9          0.920              1.108              0.515
 Vibration    10          0.942              1.064              0.477
 Vibration    11          0.945              1.057              0.470

 Optimization completed.
    -- Stationary point found.
 Normal termination of Gaussian 09 at Fri Jan 22 06:30:59 2016.
