 Gaussian 09, Revision A.02,
 Gaussian 09:  EM64L-G09RevA.02 11-Jun-2009

 --------------------------------------------------------------
 # opt=calcfc freq m062x 6-311++g(d,p) scrf=(smd,solvent=water)
 --------------------------------------------------------------

 -----------
 aminophenol
 -----------
 Symbolic Z-matrix:
 Charge =  0 Multiplicity = 1

 SCF Done:  E(RM062X) =  -362.792685858     A.U. after   14 cycles
 SCF Done:  E(RM062X) =  -362.792968918     A.U. after   14 cycles
 SCF Done:  E(RM062X) =  -362.795467901     A.U. after   13 cycles
 SCF Done:  E(RM062X) =  -362.796041039     A.U. after   12 cycles
 SCF Done:  E(RM062X) =  -362.796199414     A.U. after   11 cycles
 SCF Done:  E(RM062X) =  -362.796213207     A.U. after   10 cycles
 SCF Done:  E(RM062X) =  -362.796232682     A.U. after   10 cycles
 SCF Done:  E(RM062X) =  -362.796236810     A.U. after   10 cycles
 SCF Done:  E(RM062X) =  -362.796237006     A.U. after    9 cycles
 Optimization completed.
    -- Stationary point found.
 Normal termination of Gaussian 09 at Fri Jan 22 07:17:44 2016.

 ----------------------------------------------------------------------
 #N Geom=AllCheck Guess=TCheck SCRF=Check GenChk RM062X/6-311++G(d,p) F
 req
 ----------------------------------------------------------------------

 aminophenol
 -----------
 Redundant internal coordinates taken from checkpoint file:
 aminophenol_react_m06.chk
 Charge =  0 Multiplicity = 1

                         Standard orientation:
 ---------------------------------------------------------------------
 Center     Atomic      Atomic             Coordinates (Angstroms)
 Number     Number       Type             X           Y           Z
 ---------------------------------------------------------------------
      1          6           0       -1.251106    1.093159    0.004058
      2          6           0        1.203209   -0.277794   -0.009194
      3          6           0       -1.210330   -0.299524    0.000300
      4          6           0       -0.045899    1.788003    0.004202
      5          6           0        1.174221    1.123222   -0.002475
      6          6           0       -0.003037   -0.987822   -0.006448
      7          8           0       -2.411040   -0.966410    0.004935
      8          7           0        2.414867   -0.960307   -0.079471
      9          1           0       -2.253557   -1.918631   -0.001233
     10          1           0       -2.204988    1.605518    0.009567
     11          1           0       -0.058969    2.872143    0.010794
     12          1           0        2.106828    1.676421   -0.002142
     13          1           0        3.204531   -0.440153    0.280069
     14          1           0        2.385794   -1.903394    0.285880
     15          1           0        0.002257   -2.073937   -0.008773
 ---------------------------------------------------------------------

 SCF Done:  E(RM062X) =  -362.796237006     A.U. after    1 cycles

 The electronic state is 1-A.
 Alpha  occ. eigenvalues --  -19.65245 -14.74557 -10.60780 -10.58770 -10.54488
 Alpha  occ. eigenvalues --  -10.53479 -10.53016 -10.52990  -1.18333  -1.02666
 Alpha  occ. eigenvalues --   -0.94069  -0.83879  -0.82384  -0.71121  -0.68246
 Alpha  occ. eigenvalues --   -0.62671  -0.59130  -0.55762  -0.53884  -0.51331
 Alpha  occ. eigenvalues --   -0.49746  -0.49121  -0.46039  -0.44408  -0.42351
 Alpha  occ. eigenvalues --   -0.40932  -0.37109  -0.29295  -0.26119
 Alpha virt. eigenvalues --    0.00343   0.01635   0.01672   0.02164   0.03483
 Alpha virt. eigenvalues --    0.03726   0.03905   0.05374   0.06690   0.06981
 Alpha virt. eigenvalues --    0.07499   0.09550   0.09813   0.10598   0.12190

 Mulliken atomic charges:
              1
     1  C    0.025830
     2  C   -0.942808
     3  C   -0.789088
     4  C   -0.524344
     5  C    0.199893
     6  C    0.797565
     7  O   -0.336265
     8  N   -0.398204
     9  H    0.341250
    10  H    0.263684
    11  H    0.251958
    12  H    0.256237
    13  H    0.296804
    14  H    0.294326
    15  H    0.263164
 Sum of Mulliken atomic charges =   0.00000

 Dipole moment (field-independent basis, Debye):
    X=              2.7628    Y=             -2.3931    Z=              1.4159  Tot=              3.9198
 Quadrupole moment (field-independent basis, Debye-Ang):
   XX=            -44.8318   YY=            -34.5883   ZZ=            -53.3332
   XY=              1.3063   XZ=              4.1858   YZ=             -1.7236

  Exact polarizability: 150.277  -4.694 133.953  -1.162   0.736  71.182
 Approx polarizability: 127.729  -3.067 115.561  -1.025   0.632  63.304

                     1                      2                      3
                     A                      A                      A
 Frequencies --   220.9770               235.1609               323.7066
 Red. masses --     4.1228                 4.0911                 1.9585
 Frc consts  --     0.1186                 0.1333                 0.1209
 IR Inten    --     8.5154                 1.9093                 9.8708

                     4                      5                      6
                     A                      A                      A
 Frequencies --   342.7281               381.7288               461.2120
 Red. masses --     1.4307                 1.0896                 2.7335
 Frc consts  --     0.0990                 0.0935                 0.3426
 IR Inten    --    42.9424               215.9461                54.2704

                     7                      8                      9
                     A                      A                      A
 Frequencies --   479.9113               529.0653               546.4791
 Red. masses --     3.3400                 6.7020                 6.7585
 Frc consts  --     0.4532                 1.1053                 1.1892
 IR Inten    --    23.5781                18.8357                33.4698

                    10                     11                     12
                     A                      A                      A
 Frequencies --   580.7344               648.2033               691.5103
 Red. masses --     1.4862                 3.3535                 2.1824
 Frc consts  --     0.2953                 0.8302                 0.6149
 IR Inten    --   443.2756               121.4131                24.5568

                    13                     14                     15
                     A                      A                      A
 Frequencies --   760.0430               779.4459               852.6877
 Red. masses --     5.9025                 1.5326                 1.4802
 Frc consts  --     2.0089                 0.5486                 0.6341
 IR Inten    --    19.7909               120.0946                76.7254

                    16                     17                     18
                     A                      A                      A
 Frequencies --   869.5599               985.0154               999.4672
 Red. masses --     1.4657                 2.7947                 1.2862
 Frc consts  --     0.6530                 1.5976                 0.7570
 IR Inten    --     2.9389               103.9163                 0.2433

                    19                     20                     21
                     A                      A                      A
 Frequencies --  1011.7582              1090.9189              1136.7903
 Red. masses --     5.9647                 1.5132                 1.2985
 Frc consts  --     3.5974                 1.0610                 0.9887
 IR Inten    --     1.7018                15.4383                35.4385

                    22                     23                     24
                     A                      A                      A
 Frequencies --  1167.8720              1200.8579              1218.0886
 Red. masses --     1.1461                 2.0669                 1.2672
 Frc consts  --     0.9210                 1.7561                 1.1077
 IR Inten    --    86.6469               319.1883                73.4670

                    25                     26                     27
                     A                      A                      A
 Frequencies --  1337.8053              1350.2052              1380.3158
 Red. masses --     3.7883                 1.8084                 2.1473
 Frc consts  --     3.9946                 1.9424                 2.4104
 IR Inten    --    94.3646                40.0465                18.9867

                    28                     29                     30
                     A                      A                      A
 Frequencies --  1507.7093              1545.7598              1620.2549
 Red. masses --     3.0774                 2.5424                 1.1772
 Frc consts  --     4.1217                 3.5792                 1.8209
 IR Inten    --    79.4049               137.4641                89.2401

                    31                     32                     33
                     A                      A                      A
 Frequencies --  1665.1261              1681.9705              3171.7054
 Red. masses --     6.2957                 6.1417                 1.0926
 Frc consts  --    10.2846                10.2371                 6.4759
 IR Inten    --   227.3018               452.0873                 0.7375

                    34                     35                     36
                     A                      A                      A
 Frequencies --  3185.0026              3197.5781              3207.7436
 Red. masses --     1.0880                 1.0940                 1.0976
 Frc consts  --     6.5026                 6.5904                 6.6542
 IR Inten    --     5.8982                 5.5025                 0.4655

                    37                     38                     39
                     A                      A                      A
 Frequencies --  3564.8902              3664.1060              3858.7062
 Red. masses --     1.0486                 1.0996                 1.0663
 Frc consts  --     7.8514                 8.6984                 9.3542
 IR Inten    --    95.8368                80.0993               206.6482

 - Thermochemistry -
 -------------------
 Temperature   298.150 Kelvin.  Pressure   1.00000 Atm.
 Atom     1 has atomic number  6 and mass  12.00000

 Molecular mass:   109.05276 amu.
 Principal axes and moments of inertia in atomic units:
                           1         2         3
     Eigenvalues --   483.02290 984.564271465.88777
           X            0.99990  -0.01264   0.00570
           Y            0.01267   0.99991  -0.00453
           Z           -0.00564   0.00460   0.99997
 This molecule is an asymmetric top.
 Rotational symmetry number  1.
 Warning -- assumption of classical behavior for rotation
           may cause significant error
 Rotational temperatures (Kelvin)      0.17932     0.08797     0.05909
 Rotational constants (GHZ):           3.73635     1.83304     1.23116
 Zero-point vibrational energy     319718.7 (Joules/Mol)
                                   76.41461 (Kcal/Mol)
 Warning -- explicit consideration of  10 degrees of freedom as
           vibrations may cause significant error
 Vibrational temperatures:    317.94   338.34   465.74   493.11   549.22
          (Kelvin)            663.58   690.48   761.21   786.26   835.55
                              932.62   994.93  1093.53  1121.45  1226.83
                             1251.10  1417.22  1438.01  1455.69  1569.59
                             1635.59  1680.31  1727.76  1752.56  1924.80
                             1942.64  1985.96  2169.25  2224.00  2331.18
                             2395.74  2419.98  4563.37  4582.50  4600.60
                             4615.22  5129.08  5271.82  5551.81

 Zero-point correction=                           0.121774 (Hartree/Particle)
 Thermal correction to Energy=                    0.128597
 Thermal correction to Enthalpy=                  0.129541
 Thermal correction to Gibbs Free Energy=         0.091275
 Sum of electronic and zero-point Energies=           -362.674463
 Sum of electronic and thermal Energies=              -362.667640
 Sum of electronic and thermal Enthalpies=            -362.666696
 Sum of electronic and thermal Free Energies=         -362.704962

                     E (Thermal)             CV                S
                      KCal/Mol        Cal/Mol-Kelvin    Cal/Mol-Kelvin
 Total                   80.696             27.548             80.538
 Electronic               0.000              0.000              0.000
 Translational            0.889              2.981             39.976
 Rotational               0.889              2.981             28.035
 Vibrational             78.918             21.586             12.526
 Vibration     1          0.648              1.809              1.951
 Vibration     2          0.655              1.787              1.839
 Vibration     3          0.708              1.628              1.291
 Vibration     4          0.722              1.590              1.199
 Vibration     5          0.751              1.509              1.032
 Vibration     6          0.819              1.336              0.763
 Vibration     7          0.836              1.295              0.710
 Vibration     8          0.884              1.186              0.589
 Vibration     9          0.902              1.147              0.552
 Vibration    10          0.937              1.073              0.484

 Optimization completed.
    -- Stationary point found.
 Normal termination of Gaussian 09 at Fri Jan 22 07:27:06 2016.
