 Gaussian 09, Revision A.02,
 Gaussian 09:  EM64L-G09RevA.02 11-Jun-2009

 --------------------------------------------------------------
 # opt=calcfc freq 6-311++g(d,p) scrf=(smd,solvent=water) m062x
 --------------------------------------------------------------

 ------
 SO4-_m
 ------
 Symbolic Z-matrix:
 Charge = -1 Multiplicity = 2

 SCF Done:  E(UM062X) =  -699.113285071     A.U. after   18 cycles
 SCF Done:  E(UM062X) =  -699.067903173     A.U. after   29 cycles
 SCF Done:  E(UM062X) =  -699.076166908     A.U. after   18 cycles
 SCF Done:  E(UM062X) =  -699.082989972     A.U. after   21 cycles
 SCF Done:  E(UM062X) =  -699.088684258     A.U. after   23 cycles
 SCF Done:  E(UM062X) =  -699.107993355     A.U. after   24 cycles
 SCF Done:  E(UM062X) =  -699.113313333     A.U. after   19 cycles
 SCF Done:  E(UM062X) =  -699.109684080     A.U. after   18 cycles
 SCF Done:  E(UM062X) =  -699.113593018     A.U. after   19 cycles
 SCF Done:  E(UM062X) =  -699.113256040     A.U. after   18 cycles
 SCF Done:  E(UM062X) =  -699.113593242     A.U. after   19 cycles
 Optimization completed.
    -- Stationary point found.
 Normal termination of Gaussian 09 at Fri Oct  9 01:39:36 2015.

 ----------------------------------------------------------------------
 #N Geom=AllCheck Guess=TCheck SCRF=Check GenChk UM062X/6-311++G(d,p) F
 req
 ----------------------------------------------------------------------

 SO4-_m
 ------
 Redundant internal coordinates taken from checkpoint file:
 SO4-_radical.chk
 Charge = -1 Multiplicity = 2

                         Standard orientation:
 ---------------------------------------------------------------------
 Center     Atomic      Atomic             Coordinates (Angstroms)
 Number     Number       Type             X           Y           Z
 ---------------------------------------------------------------------
      1         16           0        0.084558    0.000000    0.000239
      2          8           0        0.879526    1.223559   -0.000256
      3          8           0        0.879535   -1.223553   -0.000251
      4          8           0       -0.964285   -0.000006   -1.103629
      5          8           0       -0.963892   -0.000001    1.103658
 ---------------------------------------------------------------------

 SCF Done:  E(UM062X) =  -699.113593242     A.U. after    1 cycles

 The electronic state is 2-A.
 Alpha  occ. eigenvalues --  -90.14934 -19.68029 -19.68002 -19.62552 -19.62551
 Alpha  occ. eigenvalues --   -8.48541  -6.40809  -6.40771  -6.40729  -1.31831
 Alpha  occ. eigenvalues --   -1.16042  -1.14396  -1.13527  -0.70791  -0.60977
 Alpha  occ. eigenvalues --   -0.60730  -0.58919  -0.51511  -0.46980  -0.46247
 Alpha  occ. eigenvalues --   -0.45306  -0.44678  -0.41029  -0.38368  -0.37251
 Alpha virt. eigenvalues --    0.01980   0.05160   0.05217   0.05235   0.12798
 Alpha virt. eigenvalues --    0.14815   0.15113   0.17587   0.19132   0.19183
 Alpha virt. eigenvalues --    0.19524   0.20881   0.24661   0.24673   0.25852

  Beta  occ. eigenvalues --  -90.14986 -19.66986 -19.66962 -19.62510 -19.62508
  Beta  occ. eigenvalues --   -8.48561  -6.40870  -6.40837  -6.40751  -1.30574
  Beta  occ. eigenvalues --   -1.14288  -1.13429  -1.10477  -0.69228  -0.59263
  Beta  occ. eigenvalues --   -0.58496  -0.58134  -0.45450  -0.45225  -0.44959
  Beta  occ. eigenvalues --   -0.42208  -0.40983  -0.36836  -0.36780
  Beta virt. eigenvalues --   -0.15573   0.02230   0.05330   0.05419   0.05499
  Beta virt. eigenvalues --    0.13345   0.14844   0.15247   0.18058   0.19666
  Beta virt. eigenvalues --    0.19954   0.20002   0.21137   0.25197   0.25357

 Mulliken atomic charges:
              1
     1  S    0.630907
     2  O   -0.452056
     3  O   -0.452056
     4  O   -0.362943
     5  O   -0.363852
 Sum of Mulliken atomic charges =  -1.00000

 Dipole moment (field-independent basis, Debye):
    X=             -0.6037    Y=              0.0000    Z=             -0.0032  Tot=              0.6037
 Quadrupole moment (field-independent basis, Debye-Ang):
   XX=            -43.8159   YY=            -44.4568   ZZ=            -39.2556
   XY=              0.0000   XZ=              0.0057   YZ=              0.0000

  Exact polarizability:  43.817   0.000  46.133   0.017   0.000  86.819
 Approx polarizability:  39.114   0.000  40.011   0.004   0.000  57.204

                     1                      2                      3
                     A                      A                      A
 Frequencies --   275.4385               360.0512               383.2350
 Red. masses --    23.8364                15.9949                16.2103
 Frc consts  --     1.0655                 1.2217                 1.4027
 IR Inten    --   133.4064                 0.0000                 4.1892

                     4                      5                      6
                     A                      A                      A
 Frequencies --   532.8111               535.4212               650.3293
 Red. masses --    18.1609                17.9377                16.0428
 Frc consts  --     3.0376                 3.0298                 3.9976
 IR Inten    --    85.0841               113.3203               217.9331

                     7                      8                      9
                     A                      A                      A
 Frequencies --   957.1767              1157.4821              1221.9694
 Red. masses --    16.5144                19.5104                20.3195
 Frc consts  --     8.9145                15.4009                17.8765
 IR Inten    --    53.2460               509.4388               697.5447

 - Thermochemistry -
 -------------------
 Temperature   298.150 Kelvin.  Pressure   1.00000 Atm.
 Atom     1 has atomic number 16 and mass  31.97207

 Molecular mass:    95.95173 amu.
 Principal axes and moments of inertia in atomic units:
                           1         2         3
     Eigenvalues --   310.16897 334.51272 366.39201
           X            1.00000   0.00000   0.00000
           Y            0.00000   1.00000   0.00000
           Z            0.00000   0.00000   1.00000
 This molecule is an asymmetric top.
 Rotational symmetry number  1.
 Rotational temperatures (Kelvin)      0.27925     0.25893     0.23640
 Rotational constants (GHZ):           5.81857     5.39513     4.92571
 Zero-point vibrational energy      36330.1 (Joules/Mol)
                                    8.68310 (Kcal/Mol)
 Warning -- explicit consideration of   5 degrees of freedom as
           vibrations may cause significant error
 Vibrational temperatures:    396.29   518.03   551.39   766.60   770.35
          (Kelvin)            935.68  1377.16  1665.36  1758.14

 Zero-point correction=                           0.013837 (Hartree/Particle)
 Thermal correction to Energy=                    0.018411
 Thermal correction to Enthalpy=                  0.019355
 Thermal correction to Gibbs Free Energy=        -0.014641
 Sum of electronic and zero-point Energies=           -699.099756
 Sum of electronic and thermal Energies=              -699.095182
 Sum of electronic and thermal Enthalpies=            -699.094238
 Sum of electronic and thermal Free Energies=         -699.128235

                     E (Thermal)             CV                S
                      KCal/Mol        Cal/Mol-Kelvin    Cal/Mol-Kelvin
 Total                   11.553             14.869             71.552
 Electronic               0.000              0.000              1.377
 Translational            0.889              2.981             39.595
 Rotational               0.889              2.981             25.145
 Vibrational              9.776              8.907              5.435
 Vibration     1          0.677              1.719              1.562
 Vibration     2          0.735              1.555              1.122
 Vibration     3          0.752              1.506              1.026
 Vibration     4          0.888              1.177              0.581
 Vibration     5          0.890              1.172              0.575

 Optimization completed.
    -- Stationary point found.
 Normal termination of Gaussian 09 at Fri Oct  9 01:40:54 2015.
