 Gaussian 09, Revision A.02,
 Gaussian 09:  EM64L-G09RevA.02 11-Jun-2009

 --------------------------------------------------------------
 # opt=calcfc freq 6-311++g(d,p) scrf=(smd,solvent=water) m062x
 --------------------------------------------------------------

 ---------------
 SO4-2_m_prodcut
 ---------------
 Symbolic Z-matrix:
 Charge = -2 Multiplicity = 1

 SCF Done:  E(RM062X) =  -699.328391814     A.U. after   12 cycles
 SCF Done:  E(RM062X) =  -699.350384523     A.U. after   12 cycles
 SCF Done:  E(RM062X) =  -699.352706008     A.U. after   12 cycles
 SCF Done:  E(RM062X) =  -699.352863373     A.U. after   14 cycles
 SCF Done:  E(RM062X) =  -699.352749603     A.U. after   13 cycles
 SCF Done:  E(RM062X) =  -699.352778497     A.U. after   14 cycles
 SCF Done:  E(RM062X) =  -699.352657611     A.U. after   13 cycles
 SCF Done:  E(RM062X) =  -699.352703799     A.U. after   14 cycles
 SCF Done:  E(RM062X) =  -699.352749523     A.U. after   12 cycles
 SCF Done:  E(RM062X) =  -699.352524132     A.U. after   11 cycles
 SCF Done:  E(RM062X) =  -699.352705315     A.U. after   14 cycles
 SCF Done:  E(RM062X) =  -699.352767955     A.U. after   14 cycles
 SCF Done:  E(RM062X) =  -699.352634969     A.U. after   13 cycles
 SCF Done:  E(RM062X) =  -699.352746344     A.U. after   14 cycles
 Optimization completed.
    -- Stationary point found.
 Normal termination of Gaussian 09 at Fri Oct  9 01:30:19 2015.

 ----------------------------------------------------------------------
 #N Geom=AllCheck Guess=TCheck SCRF=Check GenChk RM062X/6-311++G(d,p) F
 req
 ----------------------------------------------------------------------

 SO4-2_m_prodcut
 ---------------
 Redundant internal coordinates taken from checkpoint file:
 SO4-_product.chk
 Charge = -2 Multiplicity = 1

                         Standard orientation:
 ---------------------------------------------------------------------
 Center     Atomic      Atomic             Coordinates (Angstroms)
 Number     Number       Type             X           Y           Z
 ---------------------------------------------------------------------
      1         16           0       -0.000263   -0.000151    0.000031
      2          8           0        0.900438   -0.301270    1.163720
      3          8           0       -1.414117    0.150562    0.485125
      4          8           0        0.071639   -1.125162   -0.991882
      5          8           0        0.442567    1.276173   -0.657024
 ---------------------------------------------------------------------

 SCF Done:  E(RM062X) =  -699.352746344     A.U. after    1 cycles

 The electronic state is 1-A.
 Alpha  occ. eigenvalues --  -90.09147 -19.56635 -19.56625 -19.56623 -19.56609
 Alpha  occ. eigenvalues --   -8.42577  -6.34828  -6.34828  -6.34827  -1.23142
 Alpha  occ. eigenvalues --   -1.06174  -1.06169  -1.06144  -0.63943  -0.53059
 Alpha  occ. eigenvalues --   -0.53051  -0.53049  -0.40503  -0.40494  -0.38150
 Alpha  occ. eigenvalues --   -0.38147  -0.38141  -0.31066  -0.31056  -0.31049
 Alpha virt. eigenvalues --    0.03118   0.05949   0.05953   0.05957   0.16430
 Alpha virt. eigenvalues --    0.16434   0.16438   0.20915   0.20973   0.20982
 Alpha virt. eigenvalues --    0.24903   0.25630   0.25640   0.25673   0.26975

 Mulliken atomic charges:
              1
     1  S    0.757318
     2  O   -0.689215
     3  O   -0.689331
     4  O   -0.688937
     5  O   -0.689834
 Sum of Mulliken atomic charges =  -2.00000

 Dipole moment (field-independent basis, Debye):
    X=             -0.0017    Y=             -0.0067    Z=             -0.0003  Tot=              0.0070
 Quadrupole moment (field-independent basis, Debye-Ang):
   XX=            -50.2593   YY=            -50.2411   ZZ=            -50.2392
   XY=             -0.0032   XZ=             -0.0019   YZ=              0.0036

  Exact polarizability:  49.096   0.031  49.040   0.020  -0.044  49.007
 Approx polarizability:  41.061   0.000  41.029  -0.008   0.000  41.016

                     1                      2                      3
                     A                      A                      A
 Frequencies --   417.8585               418.9873               572.7223
 Red. masses --    15.9984                15.9953                18.1988
 Frc consts  --     1.6458                 1.6544                 3.5171
 IR Inten    --     0.3153                 0.0329               140.8048

                     4                      5                      6
                     A                      A                      A
 Frequencies --   576.6802               581.3037               955.4016
 Red. masses --    18.1302                18.1493                16.0096
 Frc consts  --     3.5524                 3.6134                 8.6100
 IR Inten    --   134.6638               136.3162                 3.3227

                     7                      8                      9
                     A                      A                      A
 Frequencies --  1031.3383              1042.0762              1046.4123
 Red. masses --    20.3372                20.3216                20.3619
 Frc consts  --    12.7451                13.0019                13.1363
 IR Inten    --   859.6464               858.4424               864.7867

 - Thermochemistry -
 -------------------
 Temperature   298.150 Kelvin.  Pressure   1.00000 Atm.
 Atom     1 has atomic number 16 and mass  31.97207

 Molecular mass:    95.95173 amu.
 Principal axes and moments of inertia in atomic units:
                           1         2         3
     Eigenvalues --   343.46382 343.66230 343.83005
           X            1.00000   0.00000   0.00000
           Y            0.00000   1.00000   0.00000
           Z            0.00000   0.00000   1.00000
 This molecule is an asymmetric top.
 Rotational symmetry number  1.
 Rotational temperatures (Kelvin)      0.25218     0.25203     0.25191
 Rotational constants (GHZ):           5.25453     5.25150     5.24893
 Zero-point vibrational energy      39732.6 (Joules/Mol)
                                    9.49633 (Kcal/Mol)
 Warning -- explicit consideration of   5 degrees of freedom as
           vibrations may cause significant error
 Vibrational temperatures:    601.20   602.83   824.02   829.71   836.37
          (Kelvin)           1374.61  1483.86  1499.31  1505.55

 Zero-point correction=                           0.015133 (Hartree/Particle)
 Thermal correction to Energy=                    0.019207
 Thermal correction to Enthalpy=                  0.020152
 Thermal correction to Gibbs Free Energy=        -0.012359
 Sum of electronic and zero-point Energies=           -699.337613
 Sum of electronic and thermal Energies=              -699.333539
 Sum of electronic and thermal Enthalpies=            -699.332595
 Sum of electronic and thermal Free Energies=         -699.365105

                     E (Thermal)             CV                S
                      KCal/Mol        Cal/Mol-Kelvin    Cal/Mol-Kelvin
 Total                   12.053             13.501             68.424
 Electronic               0.000              0.000              0.000
 Translational            0.889              2.981             39.595
 Rotational               0.889              2.981             25.210
 Vibrational             10.275              7.539              3.619
 Vibration     1          0.781              1.431              0.899
 Vibration     2          0.782              1.429              0.895
 Vibration     3          0.929              1.090              0.499
 Vibration     4          0.933              1.082              0.492
 Vibration     5          0.938              1.072              0.483

 Optimization completed.
    -- Stationary point found.
 Normal termination of Gaussian 09 at Fri Oct  9 01:31:41 2015.
